# Created by the Bilbao Crystallographic Server
# http://www.cryst.ehu.es
# Date: 11/25/2014 17:58:00
# Database entry: 0.10 DyFeO3
# Cif-like file for the case 0.10


data_5yOhtAoR
_audit_creation_date            2014-11-25
_audit_creation_method          "Bilbao Crystallographic Server"

_chemical_name_systematic
;
;
_chemical_name_common                    ?
_chemical_formula_moiety                 ?
_chemical_formula_structural             ?
_chemical_formula_analytical             ?
_chemical_formula_iupac                  ?
_chemical_formula_sum                    'Dy Fe O3'
_chemical_formula_weight                 ?
_chemical_melting_point                  ?
_chemical_compound_source                ?
_chemical_absolute_configuration         .


_citation_journal_abbrev        "Phys. Rev. Lett."
_citation_journal_volume        101
_citation_page_first            ?
_citation_page_last             ?
_citation_article_id            097205
_citation_year                  2008
_citation_DOI                   ?

loop_
_citation_author_name
"Tokunaga, Y."

_atomic_positions_source_database_code_ICSD   280091
_atomic_positions_source_other               .

_transition_temperature     4
_experiment_temperature     ?

loop_
_irrep_id
_irrep_dimension
_irrep_small_dimension
_irrep_direction_type
_irrep_action
_irrep_modes_number
_irrep_presence
? ? ? ? ? . .

_exptl_crystal_magnetic_properties_details
;
arbitrary spin values
;

_active_magnetic_irreps_details
;
1k magnetic structure
;

_magnetic_space_group_standard_setting  'no'
_parent_space_group.name_H-M              'P n m a'
_parent_space_group.IT_number             62

loop_
_magnetic_propagation_vector_seq_id
_magnetic_propagation_vector_kxkykz
k1 0,0,0

_magnetic_space_group.transform_from_parent_Pp_abc  'a,b,c;0,0,0'
_magnetic_space_group.transform_to_standard_Pp_abc  'a,b,c;0,0,1/4'

loop_
_magnetic_atom_site_moment_symmetry_constraints_label
_atom_site_magnetic_moment_symmetry_constraints_mxmymz
Dy1 mx,my,mz
Fe1 mx,my,mz

_space_group.magn_number_BNS   19.25
_space_group.magn_name_BNS     "P 2_12_12_1"
_space_group.magn_point_group "222"
_space_group.magn_point_group_number "6.1.17"
_cell_length_a                 5.59570
_cell_length_b                 7.62900
_cell_length_c                 5.30090
_cell_angle_alpha              90.00
_cell_angle_beta               90.00
_cell_angle_gamma              90.00

loop_
_space_group_symop.magn_id
_space_group_symop.magn_operation_xyz
_space_group_symop.magn_operation_mxmymz
1 x,y,z,+1 mx,my,mz
2 x+1/2,-y+1/2,-z+1/2,+1 mx,-my,-mz
3 -x,y+1/2,-z,+1 -mx,my,-mz
4 -x+1/2,-y,z+1/2,+1 -mx,-my,mz

loop_
_space_group_symop.magn_centering_id
_space_group_symop.magn_centering_xyz
_space_group_symop.magn_centering_mxmymz
1 x,y,z,+1 mx,my,mz

loop_
_atom_site_label
_atom_site_type_symbol
_atom_site_fract_x
_atom_site_fract_y
_atom_site_fract_z
_atom_site_occupancy
Dy1 Dy 0.06665 0.25000 0.98275 1
Fe1 Fe 0.00000 0.00000 0.50000 1
O1 O 0.46260 0.25000 0.10810 1
O2_1 O 0.69670 0.94430 0.30750 1
O2_2 O 0.30330 0.05570 0.69250 1

loop_
_atom_site_moment_label
_atom_site_moment_crystalaxis_x
_atom_site_moment_crystalaxis_y
_atom_site_moment_crystalaxis_z
Dy1 1. 0.0 0.0
Fe1 1. 0.3 0.0

